 *******************************************************************************
 ** Site#: 6211         For non-commercial use only    Version 17.173L 64BITS **
 *******************************************************************************
 ** Cite this program as: MOPAC2016, Version: 17.173L, James J. P. Stewart,   **
 ** Stewart Computational Chemistry, web: HTTP://OpenMOPAC.net. Days left: 280**
 *******************************************************************************
 **                                                                           **
 **                                MOPAC2016                                  **
 **                                                                           **
 *******************************************************************************

                              RM1 CALCULATION RESULTS


 *******************************************************************************
 *  CALCULATION DONE:                                Fri Sep 15 15:55:43 2017  *
 *  RM1        - The RM1 Hamiltonian to be used
 *  1SCF       - DO 1 SCF AND THEN STOP 
 *  T=         - A TIME OF 172800.0 SECONDS REQUESTED
 *  DUMP=N     - RESTART FILE WRITTEN EVERY  7200.000 SECONDS
 *******************************************************************************
RM1 1SCF
 titulo

   ATOM   CHEMICAL          X               Y               Z
  NUMBER   SYMBOL      (ANGSTROMS)     (ANGSTROMS)     (ANGSTROMS)
 
     1       H          0.00000000  *   0.00000000  *   0.00000000  *
     2       H          1.00000000  *   0.00000000  *   0.00000000  *
 


          CARTESIAN COORDINATES 

    NO.       ATOM         X         Y         Z

     1         H        0.0000    0.0000    0.0000
     2         H        1.0000    0.0000    0.0000

  H: (RM1): G.B. ROCHA, R.O. FREIRE, A.M.SIMAS, J.J.P. STEWART, J. COMP. CHEM. 27, 1101 (2006)

           Empirical Formula: H2  =     2 atoms



      MOLECULAR POINT GROUP   :   D*h 


      RHF CALCULATION, NO. OF DOUBLY OCCUPIED LEVELS = 1


 -------------------------------------------------------------------------------
RM1 1SCF
 titulo



     1SCF WAS SPECIFIED, SO BFGS WAS NOT USED                 
     SCF FIELD WAS ACHIEVED                                   


                              RM1 CALCULATION
                                                       MOPAC2016 (Version: 17.173L)
                                                       Fri Sep 15 15:55:43 2017
                                                       No. of days remaining = 280




          FINAL HEAT OF FORMATION =         22.07472 KCAL/MOL =      92.36061 KJ/MOL


          TOTAL ENERGY            =        -27.48282 EV
          ELECTRONIC ENERGY       =        -38.59663 EV  POINT GROUP:     D*h 
          CORE-CORE REPULSION     =         11.11381 EV
          COSMO AREA              =         29.35 SQUARE ANGSTROMS
          COSMO VOLUME            =         14.33 CUBIC ANGSTROMS

          IONIZATION POTENTIAL    =         13.294606 EV
          HOMO LUMO ENERGIES (EV) =        -13.295  3.356
          NO. OF FILLED LEVELS    =          1
          MOLECULAR WEIGHT        =          2.0158

          MOLECULAR DIMENSIONS (Angstroms)

            Atom       Atom       Distance
            H     2    H     1     1.00000
            H     2    H     1     0.00000
            H     1    H     2     0.00000


          SCF CALCULATIONS        =          1
 
          WALL-CLOCK TIME         =          0.016 SECONDS
          COMPUTATION TIME        =          0.012 SECONDS




   ATOM   CHEMICAL          X               Y               Z
  NUMBER   SYMBOL      (ANGSTROMS)     (ANGSTROMS)     (ANGSTROMS)
 
     1       H          0.00000000  *   0.00000000  *   0.00000000  *
     2       H          1.00000000  *   0.00000000  *   0.00000000  *

                             CARTESIAN COORDINATES

   1    H        0.000000000     0.000000000     0.000000000
   2    H        1.000000000     0.000000000     0.000000000


           Empirical Formula: H2  =     2 atoms



      MOLECULAR POINT GROUP   :   D*h 


                  EIGENVALUES  
 -13.29461   3.35646


              NET ATOMIC CHARGES AND DIPOLE CONTRIBUTIONS

  ATOM NO.   TYPE          CHARGE      No. of ELECS.   s-Pop       
    1          H          -0.000000        1.0000     1.00000
    2          H           0.000000        1.0000     1.00000
 DIPOLE           X         Y         Z       TOTAL
 POINT-CHG.     0.000     0.000     0.000     0.000
 HYBRID         0.000     0.000     0.000     0.000
 SUM            0.000     0.000     0.000     0.000


          ATOMIC ORBITAL ELECTRON POPULATIONS

     Atom    s   
    1  H   1.00000
    2  H   1.00000

 **********************
 *                    *
 * JOB ENDED NORMALLY *
 *                    *
 **********************



 TOTAL JOB TIME:             0.02 SECONDS

 == MOPAC DONE ==
