 *******************************************************************************
 ** Site#: 6211         For non-commercial use only    Version 17.173L 64BITS **
 *******************************************************************************
 ** Cite this program as: MOPAC2016, Version: 17.173L, James J. P. Stewart,   **
 ** Stewart Computational Chemistry, web: HTTP://OpenMOPAC.net. Days left: 106**
 *******************************************************************************
 **                                                                           **
 **                                MOPAC2016                                  **
 **                                                                           **
 *******************************************************************************

                              RM1 CALCULATION RESULTS


 *******************************************************************************
 *  CALCULATION DONE:                                Thu Mar  8 09:48:03 2018  *
 *  RM1        - The RM1 Hamiltonian to be used
 *  UHF        - UNRESTRICTED HARTREE-FOCK CALCULATION
 *
 *
 *
 *                 CHARGE ON SYSTEM =    +1
 *
 *
 *
 *  1SCF       - DO 1 SCF AND THEN STOP 
 *  T=         - A TIME OF 172800.0 SECONDS REQUESTED
 *  DUMP=N     - RESTART FILE WRITTEN EVERY  7200.000 SECONDS
 *******************************************************************************
RM1 1SCF UHF CHARGE=1
 titulo

   ATOM   CHEMICAL          X               Y               Z
  NUMBER   SYMBOL      (ANGSTROMS)     (ANGSTROMS)     (ANGSTROMS)
 
     1       H          0.00000000  *   0.00000000  *   0.00000000  *
     2       H          1.00000000  *   0.00000000  *   0.00000000  *
     3       H          2.00000000  *   0.00000000  *   0.00000000  *
     4       H          3.00000000  *   0.00000000  *   0.00000000  *
 


          CARTESIAN COORDINATES 

    NO.       ATOM         X         Y         Z

     1         H        0.0000    0.0000    0.0000
     2         H        1.0000    0.0000    0.0000
     3         H        2.0000    0.0000    0.0000
     4         H        3.0000    0.0000    0.0000

  H: (RM1): G.B. ROCHA, R.O. FREIRE, A.M.SIMAS, J.J.P. STEWART, J. COMP. CHEM. 27, 1101 (2006)

           Empirical Formula: H4  =     4 atoms



      MOLECULAR POINT GROUP   :   D*h 


          UHF CALCULATION, NO. OF ALPHA ELECTRONS =    2
                           NO. OF BETA  ELECTRONS =    1

 -------------------------------------------------------------------------------
RM1 1SCF UHF CHARGE=1
 titulo



     1SCF WAS SPECIFIED, SO BFGS WAS NOT USED                 
     SCF FIELD WAS ACHIEVED                                   


                              RM1 CALCULATION
                                                       MOPAC2016 (Version: 17.173L)
                                                       Thu Mar  8 09:48:03 2018
                                                       No. of days remaining = 106




          FINAL HEAT OF FORMATION =        281.79908 KCAL/MOL =    1179.04736 KJ/MOL


          TOTAL ENERGY            =        -44.66017 EV
          ELECTRONIC ENERGY       =        -95.48039 EV  POINT GROUP:     D*h 
          CORE-CORE REPULSION     =         50.82023 EV
          COSMO AREA              =         45.58 SQUARE ANGSTROMS
          COSMO VOLUME            =         24.57 CUBIC ANGSTROMS

          IONIZATION POTENTIAL    =         19.456162 EV
          ALPHA SOMO LUMO (EV)    =        -19.456 -6.901
          BETA  SOMO LUMO (EV)    =        -24.054 -9.814
          NO. OF ALPHA ELECTRONS  =          2
          NO. OF BETA  ELECTRONS  =          1
          MOLECULAR WEIGHT        =          4.0316

          MOLECULAR DIMENSIONS (Angstroms)

            Atom       Atom       Distance
            H     4    H     1     3.00000
            H     4    H     1     0.00000
            H     1    H     2     0.00000


          SCF CALCULATIONS        =          1
 
          WALL-CLOCK TIME         =          0.016 SECONDS
          COMPUTATION TIME        =          0.016 SECONDS




   ATOM   CHEMICAL          X               Y               Z
  NUMBER   SYMBOL      (ANGSTROMS)     (ANGSTROMS)     (ANGSTROMS)
 
     1       H          0.00000000  *   0.00000000  *   0.00000000  *
     2       H          1.00000000  *   0.00000000  *   0.00000000  *
     3       H          2.00000000  *   0.00000000  *   0.00000000  *
     4       H          3.00000000  *   0.00000000  *   0.00000000  *

                             CARTESIAN COORDINATES

   1    H        0.000000000     0.000000000     0.000000000
   2    H        1.000000000     0.000000000     0.000000000
   3    H        2.000000000     0.000000000     0.000000000
   4    H        3.000000000     0.000000000     0.000000000


           Empirical Formula: H4  =     4 atoms



      MOLECULAR POINT GROUP   :   D*h 


          ALPHA EIGENVALUES  
 -25.77889 -19.45616  -6.90109  -4.29733


           BETA EIGENVALUES 
 -24.05432  -9.81422  -5.16828  -3.41342


              NET ATOMIC CHARGES AND DIPOLE CONTRIBUTIONS

  ATOM NO.   TYPE          CHARGE      No. of ELECS.   s-Pop       
    1          H           0.354205        0.6458     0.64580
    2          H           0.145795        0.8542     0.85420
    3          H           0.145795        0.8542     0.85420
    4          H           0.354205        0.6458     0.64580
 DIPOLE           X         Y         Z       TOTAL
 POINT-CHG.     0.000     0.000     0.000     0.000
 HYBRID         0.000     0.000     0.000     0.000
 SUM            0.000     0.000     0.000     0.000


          ATOMIC ORBITAL ELECTRON POPULATIONS

     Atom    s   
    1  H   0.64580
    2  H   0.85420
    3  H   0.85420
    4  H   0.64580


                    (SZ)    =    0.500000
                    (S**2)  =    0.784044


          ATOMIC ORBITAL SPIN POPULATIONS

    Atom   Total    s   
         Atomic
    1  H  0.4370  0.437
    2  H  0.0630  0.063
    3  H  0.0630  0.063
    4  H  0.4370  0.437

 **********************
 *                    *
 * JOB ENDED NORMALLY *
 *                    *
 **********************



 TOTAL JOB TIME:             0.03 SECONDS

 == MOPAC DONE ==
